<?xml version="1.0" encoding="UTF-8"?>

<!-- generated on 2022-05-14 01:18:34 by Eclipse SUMO sumo Version 1.12.0
<configuration xmlns:xsi="http://www.w3.org/2001/XMLSchema-instance" xsi:noNamespaceSchemaLocation="http://sumo.dlr.de/xsd/sumoConfiguration.xsd">

    <input>
        <net-file value="config/simulation/../data/network.net.xml"/>
        <route-files value="config/simulation/../data/routes.xml"/>
        <additional-files value="config/simulation/edgeData.add.xml"/>
    </input>

    <output>
        <netstate-dump value="config/simulation/../../output/data/netstate_dump.xml"/>
        <fcd-output value="config/simulation/../../output/data/fcd.xml"/>
        <full-output value="config/simulation/../../output/data/full_output.xml"/>
        <summary-output value="config/simulation/../../output/data/summary.xml"/>
        <collision-output value="config/simulation/../../output/data/collisions.xml"/>
        <statistic-output value="config/simulation/../../output/data/statistics.xml"/>
    </output>

    <time>
        <end value="200"/>
    </time>

    <processing>
        <ignore-route-errors value="true"/>
        <time-to-teleport value="-1"/>
    </processing>

    <report>
        <verbose value="true"/>
        <duration-log.statistics value="true"/>
        <no-step-log value="true"/>
    </report>

    <ssm_device>
        <device.ssm.file value="../../output/data/ssm_reports.xml"/>
    </ssm_device>

    <gui_only>
        <gui-settings-file value="config/simulation/edge_visualization.xml"/>
        <start value="true"/>
        <delay value="200"/>
    </gui_only>

</configuration>
-->

<fcd-export xmlns:xsi="http://www.w3.org/2001/XMLSchema-instance" xsi:noNamespaceSchemaLocation="http://sumo.dlr.de/xsd/fcd_file.xsd">
    <timestep time="0.00">
        <vehicle id="0.0" x="282.69" y="1698.40" angle="90.00" type="C_ER" speed="20.84" pos="82.69" lane="-2243_0" slope="0.00"/>
    </timestep>
    <timestep time="1.00">
        <vehicle id="0.0" x="302.79" y="1698.40" angle="90.00" type="C_ER" speed="20.10" pos="9.99" lane=":2172_5_0" slope="0.00"/>
        <vehicle id="0.1" x="266.12" y="1698.40" angle="90.00" type="C_ER" speed="13.14" pos="66.12" lane="-2243_0" slope="0.00"/>
    </timestep>
    <timestep time="2.00">
        <vehicle id="0.0" x="321.93" y="1698.40" angle="90.00" type="C_ER" speed="19.14" pos="14.73" lane="-2173_0" slope="0.00"/>
        <vehicle id="0.1" x="279.52" y="1698.40" angle="90.00" type="C_ER" speed="13.40" pos="79.52" lane="-2243_0" slope="0.00"/>
        <vehicle id="0.2" x="204.22" y="1698.40" angle="90.00" type="C_ER" speed="20.84" pos="4.22" lane="-2243_0" slope="0.00"/>
    </timestep>
    <timestep time="3.00">
        <vehicle id="0.0" x="340.98" y="1698.40" angle="90.00" type="C_ER" speed="19.05" pos="33.78" lane="-2173_0" slope="0.00"/>
        <vehicle id="0.1" x="291.92" y="1698.40" angle="90.00" type="C_ER" speed="12.40" pos="91.92" lane="-2243_0" slope="0.00"/>
        <vehicle id="0.2" x="224.56" y="1698.40" angle="90.00" type="C_ER" speed="20.34" pos="24.56" lane="-2243_0" slope="0.00"/>
    </timestep>
    <timestep time="4.00">
        <vehicle id="0.0" x="359.95" y="1698.40" angle="90.00" type="C_ER" speed="18.98" pos="52.75" lane="-2173_0" slope="0.00"/>
        <vehicle id="0.1" x="298.33" y="1693.31" angle="125.98" type="C_ER" speed="9.40" pos="8.52" lane=":2172_4_0" slope="0.00"/>
        <vehicle id="0.2" x="244.39" y="1698.40" angle="90.00" type="C_ER" speed="19.83" pos="44.39" lane="-2243_0" slope="0.00"/>
    </timestep>
    <timestep time="5.00">
        <vehicle id="0.0" x="379.09" y="1698.40" angle="90.00" type="C_ER" speed="19.14" pos="71.89" lane="-2173_0" slope="0.00"/>
        <vehicle id="0.1" x="298.40" y="1684.06" angle="178.97" type="C_ER" speed="9.25" pos="8.74" lane="2251_0" slope="0.00"/>
        <vehicle id="0.2" x="261.22" y="1698.40" angle="90.00" type="C_ER" speed="16.83" pos="61.22" lane="-2243_0" slope="0.00"/>
        <vehicle id="0.3" x="204.05" y="1698.40" angle="90.00" type="C_ER" speed="20.84" pos="4.05" lane="-2243_0" slope="0.00"/>
    </timestep>
    <timestep time="6.00">
        <vehicle id="0.0" x="399.38" y="1699.70" angle="82.46" type="C_ER" speed="20.48" pos="1.58" lane=":1979_6_0" slope="0.00"/>
        <vehicle id="0.1" x="298.40" y="1673.67" angle="180.00" type="C_ER" speed="10.40" pos="19.13" lane="2251_0" slope="0.00"/>
        <vehicle id="0.2" x="279.45" y="1698.40" angle="90.00" type="C_ER" speed="18.23" pos="79.45" lane="-2243_0" slope="0.00"/>
        <vehicle id="0.3" x="223.74" y="1698.40" angle="90.00" type="C_ER" speed="19.70" pos="23.74" lane="-2243_0" slope="0.00"/>
    </timestep>
    <timestep time="7.00">
        <vehicle id="0.0" x="414.88" y="1712.62" angle="45.51" type="C_ER" speed="20.29" pos="7.72" lane="2169_0" slope="0.00"/>
        <vehicle id="0.1" x="298.40" y="1662.41" angle="180.00" type="C_ER" speed="11.26" pos="30.39" lane="2251_0" slope="0.00"/>
        <vehicle id="0.2" x="299.28" y="1698.40" angle="90.00" type="C_ER" speed="19.83" pos="6.48" lane=":2172_5_0" slope="0.00"/>
        <vehicle id="0.3" x="243.37" y="1698.40" angle="90.00" type="C_ER" speed="19.62" pos="43.37" lane="-2243_0" slope="0.00"/>
    </timestep>
    <timestep time="8.00">
        <vehicle id="0.0" x="428.65" y="1726.39" angle="45.00" type="C_ER" speed="19.48" pos="27.20" lane="2169_0" slope="0.00"/>
        <vehicle id="0.1" x="298.40" y="1650.71" angle="180.00" type="C_ER" speed="11.70" pos="42.09" lane="2251_0" slope="0.00"/>
        <vehicle id="0.2" x="320.03" y="1698.40" angle="90.00" type="C_ER" speed="20.75" pos="12.83" lane="-2173_0" slope="0.00"/>
        <vehicle id="0.3" x="261.45" y="1698.40" angle="90.00" type="C_ER" speed="18.08" pos="61.45" lane="-2243_0" slope="0.00"/>
    </timestep>
    <timestep time="9.00">
        <vehicle id="0.0" x="442.73" y="1740.47" angle="45.00" type="C_ER" speed="19.90" pos="47.10" lane="2169_0" slope="0.00"/>
        <vehicle id="0.1" x="298.40" y="1637.27" angle="180.00" type="C_ER" speed="13.44" pos="55.53" lane="2251_0" slope="0.00"/>
        <vehicle id="0.2" x="340.61" y="1698.40" angle="90.00" type="C_ER" speed="20.58" pos="33.41" lane="-2173_0" slope="0.00"/>
        <vehicle id="0.3" x="277.21" y="1698.40" angle="90.00" type="C_ER" speed="15.76" pos="77.21" lane="-2243_0" slope="0.00"/>
        <vehicle id="0.4" x="200.56" y="1698.40" angle="90.00" type="C_ER" speed="20.84" pos="0.56" lane="-2243_0" slope="0.00"/>
    </timestep>
    <timestep time="10.00">
        <vehicle id="0.0" x="456.22" y="1753.96" angle="45.00" type="C_ER" speed="19.08" pos="66.18" lane="2169_0" slope="0.00"/>
        <vehicle id="0.1" x="298.40" y="1623.51" angle="180.00" type="C_ER" speed="13.75" pos="69.29" lane="2251_0" slope="0.00"/>
        <vehicle id="0.2" x="360.11" y="1698.40" angle="90.00" type="C_ER" speed="19.50" pos="52.91" lane="-2173_0" slope="0.00"/>
        <vehicle id="0.3" x="289.98" y="1698.40" angle="90.00" type="C_ER" speed="12.76" pos="89.98" lane="-2243_0" slope="0.00"/>
        <vehicle id="0.4" x="220.19" y="1698.40" angle="90.00" type="C_ER" speed="19.63" pos="20.19" lane="-2243_0" slope="0.00"/>
    </timestep>
    <timestep time="11.00">
        <vehicle id="0.0" x="468.50" y="1766.24" angle="45.00" type="C_ER" speed="17.36" pos="83.55" lane="2169_0" slope="0.00"/>
        <vehicle id="0.1" x="298.40" y="1608.98" angle="180.00" type="C_ER" speed="14.53" pos="83.82" lane="2251_0" slope="0.00"/>
        <vehicle id="0.2" x="379.33" y="1698.40" angle="90.00" type="C_ER" speed="19.23" pos="72.13" lane="-2173_0" slope="0.00"/>
        <vehicle id="0.3" x="298.10" y="1694.87" angle="112.88" type="C_ER" speed="9.76" pos="6.94" lane=":2172_4_0" slope="0.00"/>
        <vehicle id="0.4" x="239.35" y="1698.40" angle="90.00" type="C_ER" speed="19.16" pos="39.35" lane="-2243_0" slope="0.00"/>
    </timestep>
    <timestep time="12.00">
        <vehicle id="0.0" x="478.66" y="1776.40" angle="45.00" type="C_ER" speed="14.36" pos="97.91" lane="2169_0" slope="0.00"/>
        <vehicle id="0.2" x="399.37" y="1698.40" angle="90.00" type="C_ER" speed="20.04" pos="4.70" lane=":1979_4_0" slope="0.00"/>
        <vehicle id="0.3" x="298.40" y="1685.31" angle="177.89" type="C_ER" speed="9.58" pos="7.49" lane="2251_0" slope="0.00"/>
        <vehicle id="0.4" x="255.66" y="1698.40" angle="90.00" type="C_ER" speed="16.31" pos="55.66" lane="-2243_0" slope="0.00"/>
    </timestep>
    <timestep time="13.00">
        <vehicle id="0.0" x="486.69" y="1784.43" angle="45.00" type="C_ER" speed="11.36" pos="109.27" lane="2169_0" slope="0.00"/>
        <vehicle id="0.2" x="418.85" y="1698.40" angle="90.00" type="C_ER" speed="19.47" pos="7.12" lane="-1980_0" slope="0.00"/>
        <vehicle id="0.3" x="298.40" y="1674.71" angle="180.00" type="C_ER" speed="10.60" pos="18.09" lane="2251_0" slope="0.00"/>
        <vehicle id="0.4" x="269.81" y="1698.40" angle="90.00" type="C_ER" speed="14.16" pos="69.81" lane="-2243_0" slope="0.00"/>
        <vehicle id="0.5" x="224.55" y="1698.40" angle="90.00" type="C_ER" speed="17.81" pos="24.55" lane="-2243_0" slope="0.00"/>
        <vehicle id="0.6" x="205.59" y="1698.40" angle="90.00" type="C_ER" speed="16.32" pos="5.59" lane="-2243_0" slope="0.00"/>
        <vehicle id="0.7" x="281.25" y="1698.40" angle="90.00" type="C_ER" speed="20.84" pos="81.25" lane="-2243_0" slope="0.00"/>
    </timestep>
    <timestep time="14.00">
        <vehicle id="0.0" x="492.61" y="1790.35" angle="45.00" type="C_ER" speed="8.36" pos="117.64" lane="2169_0" slope="0.00"/>
        <vehicle id="0.2" x="439.57" y="1698.40" angle="90.00" type="C_ER" speed="20.72" pos="27.84" lane="-1980_0" slope="0.00"/>
        <vehicle id="0.3" x="298.40" y="1662.77" angle="180.00" type="C_ER" speed="11.94" pos="30.03" lane="2251_0" slope="0.00"/>
        <vehicle id="0.4" x="282.63" y="1698.40" angle="90.00" type="C_ER" speed="12.81" pos="82.63" lane="-2243_0" slope="0.00"/>
        <vehicle id="0.5" x="241.87" y="1698.40" angle="90.00" type="C_ER" speed="17.32" pos="41.87" lane="-2243_0" slope="0.00"/>
        <vehicle id="0.6" x="220.57" y="1698.40" angle="90.00" type="C_ER" speed="14.98" pos="20.57" lane="-2243_0" slope="0.00"/>
        <vehicle id="0.7" x="301.29" y="1698.40" angle="90.00" type="C_ER" speed="20.04" pos="8.49" lane=":2172_5_0" slope="0.00"/>
    </timestep>
    <timestep time="15.00">
        <vehicle id="0.0" x="497.95" y="1791.50" angle="65.79" type="C_ER" speed="6.79" pos="6.46" lane=":1985_4_0" slope="0.00"/>
        <vehicle id="0.2" x="458.89" y="1698.40" angle="90.00" type="C_ER" speed="19.32" pos="47.16" lane="-1980_0" slope="0.00"/>
        <vehicle id="0.3" x="298.40" y="1650.39" angle="180.00" type="C_ER" speed="12.37" pos="42.41" lane="2251_0" slope="0.00"/>
        <vehicle id="0.4" x="292.44" y="1698.40" angle="90.00" type="C_ER" speed="9.81" pos="92.44" lane="-2243_0" slope="0.00"/>
        <vehicle id="0.5" x="256.50" y="1698.40" angle="90.00" type="C_ER" speed="14.63" pos="56.50" lane="-2243_0" slope="0.00"/>
        <vehicle id="0.6" x="235.90" y="1698.40" angle="90.00" type="C_ER" speed="15.33" pos="35.90" lane="-2243_0" slope="0.00"/>
        <vehicle id="0.7" x="322.12" y="1698.40" angle="90.00" type="C_ER" speed="20.82" pos="14.92" lane="-2173_0" slope="0.00"/>
        <vehicle id="0.8" x="204.29" y="1698.40" angle="90.00" type="C_ER" speed="16.37" pos="4.29" lane="-2243_0" slope="0.00"/>
    </timestep>
    <timestep time="16.00">
        <vehicle id="0.0" x="498.40" y="1783.42" angle="169.86" type="C_ER" speed="8.13" pos="4.85" lane="-1986_0" slope="0.00"/>
        <vehicle id="0.2" x="475.36" y="1698.40" angle="90.00" type="C_ER" speed="16.47" pos="63.63" lane="-1980_0" slope="0.00"/>
        <vehicle id="0.3" x="298.40" y="1637.67" angle="180.00" type="C_ER" speed="12.73" pos="55.13" lane="2251_0" slope="0.00"/>
        <vehicle id="0.4" x="298.40" y="1692.77" angle="130.70" type="C_ER" speed="9.42" pos="0.03" lane="2251_0" slope="0.00"/>
        <vehicle id="0.5" x="269.83" y="1698.40" angle="90.00" type="C_ER" speed="13.33" pos="69.83" lane="-2243_0" slope="0.00"/>
        <vehicle id="0.6" x="248.22" y="1698.40" angle="90.00" type="C_ER" speed="12.33" pos="48.22" lane="-2243_0" slope="0.00"/>
        <vehicle id="0.7" x="341.81" y="1698.40" angle="90.00" type="C_ER" speed="19.70" pos="34.61" lane="-2173_0" slope="0.00"/>
        <vehicle id="0.8" x="220.42" y="1698.40" angle="90.00" type="C_ER" speed="16.13" pos="20.42" lane="-2243_0" slope="0.00"/>
    </timestep>
    <timestep time="17.00">
        <vehicle id="0.0" x="498.40" y="1773.85" angle="180.00" type="C_ER" speed="9.57" pos="14.42" lane="-1986_0" slope="0.00"/>
        <vehicle id="0.2" x="490.25" y="1698.40" angle="90.00" type="C_ER" speed="14.89" pos="78.52" lane="-1980_0" slope="0.00"/>
        <vehicle id="0.3" x="298.40" y="1623.39" angle="180.00" type="C_ER" speed="14.27" pos="69.41" lane="2251_0" slope="0.00"/>
        <vehicle id="0.4" x="298.40" y="1682.19" angle="180.00" type="C_ER" speed="10.59" pos="10.61" lane="2251_0" slope="0.00"/>
        <vehicle id="0.5" x="281.67" y="1698.40" angle="90.00" type="C_ER" speed="11.85" pos="81.67" lane="-2243_0" slope="0.00"/>
        <vehicle id="0.6" x="261.08" y="1698.40" angle="90.00" type="C_ER" speed="12.86" pos="61.08" lane="-2243_0" slope="0.00"/>
        <vehicle id="0.7" x="361.18" y="1698.40" angle="90.00" type="C_ER" speed="19.37" pos="53.98" lane="-2173_0" slope="0.00"/>
        <vehicle id="0.8" x="233.55" y="1698.40" angle="90.00" type="C_ER" speed="13.13" pos="33.55" lane="-2243_0" slope="0.00"/>
    </timestep>
    <timestep time="18.00">
        <vehicle id="0.0" x="498.40" y="1762.41" angle="180.00" type="C_ER" speed="11.44" pos="25.86" lane="-1986_0" slope="0.00"/>
        <vehicle id="0.2" x="500.55" y="1702.52" angle="63.88" type="C_ER" speed="11.89" pos="5.28" lane=":1945_13_0" slope="0.00"/>
        <vehicle id="0.3" x="298.40" y="1607.53" angle="180.00" type="C_ER" speed="15.86" pos="85.27" lane="2251_0" slope="0.00"/>
        <vehicle id="0.4" x="298.40" y="1671.46" angle="180.00" type="C_ER" speed="10.73" pos="21.34" lane="2251_0" slope="0.00"/>
        <vehicle id="0.5" x="291.41" y="1698.40" angle="90.00" type="C_ER" speed="9.74" pos="91.41" lane="-2243_0" slope="0.00"/>
        <vehicle id="0.6" x="271.03" y="1698.40" angle="90.00" type="C_ER" speed="9.94" pos="71.03" lane="-2243_0" slope="0.00"/>
        <vehicle id="0.7" x="380.44" y="1698.40" angle="90.00" type="C_ER" speed="19.26" pos="73.24" lane="-2173_0" slope="0.00"/>
        <vehicle id="0.8" x="246.40" y="1698.40" angle="90.00" type="C_ER" speed="12.85" pos="46.40" lane="-2243_0" slope="0.00"/>
    </timestep>
    <timestep time="19.00">
        <vehicle id="0.0" x="498.40" y="1749.34" angle="180.00" type="C_ER" speed="13.06" pos="38.93" lane="-1986_0" slope="0.00"/>
        <vehicle id="0.2" x="501.60" y="1712.93" angle="4.31" type="C_ER" speed="10.58" pos="5.73" lane="1986_0" slope="0.00"/>
        <vehicle id="0.4" x="298.40" y="1659.75" angle="180.00" type="C_ER" speed="11.71" pos="33.05" lane="2251_0" slope="0.00"/>
        <vehicle id="0.5" x="298.06" y="1695.20" angle="110.31" type="C_ER" speed="7.99" pos="6.61" lane=":2172_4_0" slope="0.00"/>
        <vehicle id="0.6" x="280.39" y="1698.40" angle="90.00" type="C_ER" speed="9.36" pos="80.39" lane="-2243_0" slope="0.00"/>
        <vehicle id="0.7" x="400.38" y="1698.40" angle="90.00" type="C_ER" speed="19.93" pos="5.70" lane=":1979_4_0" slope="0.00"/>
        <vehicle id="0.8" x="257.01" y="1698.40" angle="90.00" type="C_ER" speed="10.61" pos="57.01" lane="-2243_0" slope="0.00"/>
    </timestep>
    <timestep time="20.00">
        <vehicle id="0.0" x="498.40" y="1734.73" angle="180.00" type="C_ER" speed="14.61" pos="53.54" lane="-1986_0" slope="0.00"/>
        <vehicle id="0.2" x="501.60" y="1723.73" angle="0.00" type="C_ER" speed="10.80" pos="16.53" lane="1986_0" slope="0.00"/>
        <vehicle id="0.4" x="298.40" y="1647.51" angle="180.00" type="C_ER" speed="12.23" pos="45.29" lane="2251_0" slope="0.00"/>
        <vehicle id="0.5" x="298.40" y="1687.31" angle="171.80" type="C_ER" speed="7.92" pos="5.49" lane="2251_0" slope="0.00"/>
        <vehicle id="0.6" x="288.68" y="1698.40" angle="90.00" type="C_ER" speed="8.29" pos="88.68" lane="-2243_0" slope="0.00"/>
        <vehicle id="0.7" x="420.87" y="1698.40" angle="90.00" type="C_ER" speed="20.49" pos="9.14" lane="-1980_0" slope="0.00"/>
        <vehicle id="0.8" x="267.18" y="1698.40" angle="90.00" type="C_ER" speed="10.17" pos="67.18" lane="-2243_0" slope="0.00"/>
    </timestep>
    <timestep time="21.00">
        <vehicle id="0.0" x="498.40" y="1718.52" angle="180.00" type="C_ER" speed="16.21" pos="69.75" lane="-1986_0" slope="0.00"/>
        <vehicle id="0.2" x="501.60" y="1735.19" angle="0.00" type="C_ER" speed="11.46" pos="27.99" lane="1986_0" slope="0.00"/>
        <vehicle id="0.4" x="298.40" y="1634.89" angle="180.00" type="C_ER" speed="12.62" pos="57.91" lane="2251_0" slope="0.00"/>
        <vehicle id="0.5" x="298.40" y="1677.67" angle="180.00" type="C_ER" speed="9.64" pos="15.13" lane="2251_0" slope="0.00"/>
        <vehicle id="0.6" x="295.41" y="1698.40" angle="90.00" type="C_ER" speed="6.73" pos="2.61" lane=":2172_5_0" slope="0.00"/>
        <vehicle id="0.7" x="440.66" y="1698.40" angle="90.00" type="C_ER" speed="19.78" pos="28.93" lane="-1980_0" slope="0.00"/>
        <vehicle id="0.8" x="275.78" y="1698.40" angle="90.00" type="C_ER" speed="8.60" pos="75.78" lane="-2243_0" slope="0.00"/>
        <vehicle id="0.9" x="236.80" y="1698.40" angle="90.00" type="C_ER" speed="13.43" pos="36.80" lane="-2243_0" slope="0.00"/>
    </timestep>
    <timestep time="22.00">
        <vehicle id="0.0" x="499.88" y="1701.68" angle="171.37" type="C_ER" speed="17.07" pos="5.75" lane=":1945_1_0" slope="0.00"/>
        <vehicle id="0.10" x="221.97" y="1698.40" angle="90.00" type="C_ER" speed="12.93" pos="21.97" lane="-2243_0" slope="0.00"/>
        <vehicle id="0.11" x="203.01" y="1698.40" angle="90.00" type="C_ER" speed="12.12" pos="3.01" lane="-2243_0" slope="0.00"/>
        <vehicle id="0.2" x="501.60" y="1747.37" angle="0.00" type="C_ER" speed="12.18" pos="40.17" lane="1986_0" slope="0.00"/>
        <vehicle id="0.4" x="298.40" y="1621.45" angle="180.00" type="C_ER" speed="13.44" pos="71.35" lane="2251_0" slope="0.00"/>
        <vehicle id="0.5" x="298.40" y="1667.15" angle="180.00" type="C_ER" speed="10.51" pos="25.65" lane="2251_0" slope="0.00"/>
        <vehicle id="0.6" x="302.86" y="1698.40" angle="90.00" type="C_ER" speed="7.45" pos="10.06" lane=":2172_5_0" slope="0.00"/>
        <vehicle id="0.7" x="460.42" y="1698.40" angle="90.00" type="C_ER" speed="19.76" pos="48.69" lane="-1980_0" slope="0.00"/>
        <vehicle id="0.8" x="283.02" y="1698.40" angle="90.00" type="C_ER" speed="7.24" pos="83.02" lane="-2243_0" slope="0.00"/>
        <vehicle id="0.9" x="248.77" y="1698.40" angle="90.00" type="C_ER" speed="11.96" pos="48.77" lane="-2243_0" slope="0.00"/>
    </timestep>
    <timestep time="23.00">
        <vehicle id="0.0" x="510.92" y="1686.82" angle="137.41" type="C_ER" speed="18.66" pos="5.32" lane="-1951_0" slope="0.00"/>
        <vehicle id="0.10" x="234.06" y="1698.40" angle="90.00" type="C_ER" speed="12.09" pos="34.06" lane="-2243_0" slope="0.00"/>
        <vehicle id="0.11" x="215.00" y="1698.40" angle="90.00" type="C_ER" speed="11.99" pos="15.00" lane="-2243_0" slope="0.00"/>
        <vehicle id="0.2" x="501.60" y="1760.50" angle="0.00" type="C_ER" speed="13.13" pos="53.30" lane="1986_0" slope="0.00"/>
        <vehicle id="0.4" x="298.40" y="1606.14" angle="180.00" type="C_ER" speed="15.32" pos="86.66" lane="2251_0" slope="0.00"/>
        <vehicle id="0.5" x="298.40" y="1655.78" angle="180.00" type="C_ER" speed="11.38" pos="37.02" lane="2251_0" slope="0.00"/>
        <vehicle id="0.6" x="311.42" y="1698.40" angle="90.00" type="C_ER" speed="8.56" pos="4.22" lane="-2173_0" slope="0.00"/>
        <vehicle id="0.7" x="478.54" y="1698.40" angle="90.00" type="C_ER" speed="18.12" pos="66.81" lane="-1980_0" slope="0.00"/>
        <vehicle id="0.8" x="290.26" y="1698.40" angle="90.00" type="C_ER" speed="7.25" pos="90.26" lane="-2243_0" slope="0.00"/>
        <vehicle id="0.9" x="259.54" y="1698.40" angle="90.00" type="C_ER" speed="10.77" pos="59.54" lane="-2243_0" slope="0.00"/>
    </timestep>
    <timestep time="24.00">
        <vehicle id="0.0" x="525.12" y="1672.62" angle="135.00" type="C_ER" speed="20.08" pos="25.39" lane="-1951_0" slope="0.00"/>
        <vehicle id="0.10" x="245.93" y="1698.40" angle="90.00" type="C_ER" speed="11.87" pos="45.93" lane="-2243_0" slope="0.00"/>
        <vehicle id="0.11" x="225.67" y="1698.40" angle="90.00" type="C_ER" speed="10.68" pos="25.67" lane="-2243_0" slope="0.00"/>
        <vehicle id="0.12" x="214.77" y="1698.40" angle="90.00" type="C_ER" speed="7.97" pos="14.77" lane="-2243_0" slope="0.00"/>
        <vehicle id="0.2" x="501.60" y="1773.91" angle="0.00" type="C_ER" speed="13.41" pos="66.71" lane="1986_0" slope="0.00"/>
        <vehicle id="0.5" x="298.40" y="1643.41" angle="180.00" type="C_ER" speed="12.36" pos="49.39" lane="2251_0" slope="0.00"/>
        <vehicle id="0.6" x="321.01" y="1698.40" angle="90.00" type="C_ER" speed="9.59" pos="13.81" lane="-2173_0" slope="0.00"/>
        <vehicle id="0.7" x="498.32" y="1698.40" angle="90.00" type="C_ER" speed="19.77" pos="5.52" lane=":1945_10_0" slope="0.00"/>
        <vehicle id="0.8" x="297.88" y="1698.40" angle="90.00" type="C_ER" speed="7.61" pos="5.08" lane=":2172_5_0" slope="0.00"/>
        <vehicle id="0.9" x="270.19" y="1698.40" angle="90.00" type="C_ER" speed="10.65" pos="70.19" lane="-2243_0" slope="0.00"/>
    </timestep>
    <timestep time="25.00">
        <vehicle id="0.0" x="539.24" y="1658.50" angle="135.00" type="C_ER" speed="19.98" pos="45.37" lane="-1951_0" slope="0.00"/>
        <vehicle id="0.10" x="256.42" y="1698.40" angle="90.00" type="C_ER" speed="10.49" pos="56.42" lane="-2243_0" slope="0.00"/>
        <vehicle id="0.11" x="236.90" y="1698.40" angle="90.00" type="C_ER" speed="11.22" pos="36.90" lane="-2243_0" slope="0.00"/>
        <vehicle id="0.12" x="220.95" y="1698.40" angle="90.00" type="C_ER" speed="6.18" pos="20.95" lane="-2243_0" slope="0.00"/>
        <vehicle id="0.13" x="202.77" y="1698.40" angle="90.00" type="C_ER" speed="6.83" pos="2.77" lane="-2243_0" slope="0.00"/>
        <vehicle id="0.2" x="501.60" y="1787.99" angle="0.00" type="C_ER" speed="14.08" pos="80.79" lane="1986_0" slope="0.00"/>
        <vehicle id="0.5" x="298.40" y="1630.79" angle="180.00" type="C_ER" speed="12.62" pos="62.01" lane="2251_0" slope="0.00"/>
        <vehicle id="0.6" x="332.04" y="1698.40" angle="90.00" type="C_ER" speed="11.03" pos="24.84" lane="-2173_0" slope="0.00"/>
        <vehicle id="0.7" x="518.27" y="1698.40" angle="90.00" type="C_ER" speed="19.95" pos="6.54" lane="-1946_0" slope="0.00"/>
        <vehicle id="0.8" x="306.63" y="1698.40" angle="90.00" type="C_ER" speed="8.76" pos="13.83" lane=":2172_5_0" slope="0.00"/>
        <vehicle id="0.9" x="279.75" y="1698.40" angle="90.00" type="C_ER" speed="9.56" pos="79.75" lane="-2243_0" slope="0.00"/>
    </timestep>
    <timestep time="26.00">
        <vehicle id="0.0" x="553.96" y="1643.78" angle="135.00" type="C_ER" speed="20.82" pos="66.19" lane="-1951_0" slope="0.00"/>
        <vehicle id="0.10" x="266.06" y="1698.40" angle="90.00" type="C_ER" speed="9.64" pos="66.06" lane="-2243_0" slope="0.00"/>
        <vehicle id="0.11" x="246.06" y="1698.40" angle="90.00" type="C_ER" speed="9.16" pos="46.06" lane="-2243_0" slope="0.00"/>
        <vehicle id="0.12" x="228.58" y="1698.40" angle="90.00" type="C_ER" speed="7.63" pos="28.58" lane="-2243_0" slope="0.00"/>
        <vehicle id="0.13" x="208.48" y="1698.40" angle="90.00" type="C_ER" speed="5.71" pos="8.48" lane="-2243_0" slope="0.00"/>
        <vehicle id="0.2" x="506.14" y="1801.28" angle="26.45" type="C_ER" speed="14.68" pos="0.09" lane="-1988_0" slope="0.00"/>
        <vehicle id="0.5" x="298.40" y="1617.45" angle="180.00" type="C_ER" speed="13.34" pos="75.35" lane="2251_0" slope="0.00"/>
        <vehicle id="0.6" x="343.29" y="1698.40" angle="90.00" type="C_ER" speed="11.25" pos="36.09" lane="-2173_0" slope="0.00"/>
        <vehicle id="0.7" x="538.05" y="1698.40" angle="90.00" type="C_ER" speed="19.79" pos="26.32" lane="-1946_0" slope="0.00"/>
        <vehicle id="0.8" x="316.31" y="1698.40" angle="90.00" type="C_ER" speed="9.68" pos="9.11" lane="-2173_0" slope="0.00"/>
        <vehicle id="0.9" x="289.59" y="1698.40" angle="90.00" type="C_ER" speed="9.84" pos="89.59" lane="-2243_0" slope="0.00"/>
    </timestep>
    <timestep time="27.00">
        <vehicle id="0.0" x="568.26" y="1629.48" angle="135.00" type="C_ER" speed="20.22" pos="86.41" lane="-1951_0" slope="0.00"/>
        <vehicle id="0.10" x="276.42" y="1698.40" angle="90.00" type="C_ER" speed="10.37" pos="76.42" lane="-2243_0" slope="0.00"/>
        <vehicle id="0.11" x="255.22" y="1698.40" angle="90.00" type="C_ER" speed="9.16" pos="55.22" lane="-2243_0" slope="0.00"/>
        <vehicle id="0.12" x="235.54" y="1698.40" angle="90.00" type="C_ER" speed="6.96" pos="35.54" lane="-2243_0" slope="0.00"/>
        <vehicle id="0.13" x="215.02" y="1698.40" angle="90.00" type="C_ER" speed="6.54" pos="15.02" lane="-2243_0" slope="0.00"/>
        <vehicle id="0.2" x="520.78" y="1808.60" angle="63.44" type="C_ER" speed="16.37" pos="16.46" lane="-1988_0" slope="0.00"/>
        <vehicle id="0.5" x="298.40" y="1603.87" angle="180.00" type="C_ER" speed="13.59" pos="88.93" lane="2251_0" slope="0.00"/>
        <vehicle id="0.6" x="356.47" y="1698.40" angle="90.00" type="C_ER" speed="13.18" pos="49.27" lane="-2173_0" slope="0.00"/>
        <vehicle id="0.7" x="557.46" y="1698.40" angle="90.00" type="C_ER" speed="19.41" pos="45.74" lane="-1946_0" slope="0.00"/>
        <vehicle id="0.8" x="327.64" y="1698.40" angle="90.00" type="C_ER" speed="11.33" pos="20.44" lane="-2173_0" slope="0.00"/>
        <vehicle id="0.9" x="299.74" y="1698.40" angle="90.00" type="C_ER" speed="10.14" pos="6.94" lane=":2172_5_0" slope="0.00"/>
    </timestep>
    <timestep time="28.00">
        <vehicle id="0.0" x="580.43" y="1617.31" angle="135.00" type="C_ER" speed="17.22" pos="103.62" lane="-1951_0" slope="0.00"/>
        <vehicle id="0.10" x="286.88" y="1698.40" angle="90.00" type="C_ER" speed="10.45" pos="86.88" lane="-2243_0" slope="0.00"/>
        <vehicle id="0.11" x="265.67" y="1698.40" angle="90.00" type="C_ER" speed="10.45" pos="65.67" lane="-2243_0" slope="0.00"/>
        <vehicle id="0.12" x="243.10" y="1698.40" angle="90.00" type="C_ER" speed="7.56" pos="43.10" lane="-2243_0" slope="0.00"/>
        <vehicle id="0.13" x="221.86" y="1698.40" angle="90.00" type="C_ER" speed="6.84" pos="21.86" lane="-2243_0" slope="0.00"/>
        <vehicle id="0.14" x="211.64" y="1698.40" angle="90.00" type="C_ER" speed="3.93" pos="11.64" lane="-2243_0" slope="0.00"/>
        <vehicle id="0.2" x="535.57" y="1815.99" angle="63.44" type="C_ER" speed="16.53" pos="32.99" lane="-1988_0" slope="0.00"/>
        <vehicle id="0.6" x="370.72" y="1698.40" angle="90.00" type="C_ER" speed="14.25" pos="63.52" lane="-2173_0" slope="0.00"/>
        <vehicle id="0.7" x="577.05" y="1698.40" angle="90.00" type="C_ER" speed="19.59" pos="65.33" lane="-1946_0" slope="0.00"/>
        <vehicle id="0.8" x="339.44" y="1698.40" angle="90.00" type="C_ER" speed="11.80" pos="32.24" lane="-2173_0" slope="0.00"/>
        <vehicle id="0.9" x="311.38" y="1698.40" angle="90.00" type="C_ER" speed="11.64" pos="4.18" lane="-2173_0" slope="0.00"/>
    </timestep>
    <timestep time="29.00">
        <vehicle id="0.0" x="590.73" y="1607.01" angle="135.00" type="C_ER" speed="14.56" pos="118.18" lane="-1951_0" slope="0.00"/>
        <vehicle id="0.10" x="297.80" y="1698.40" angle="90.00" type="C_ER" speed="10.92" pos="5.00" lane=":2172_5_0" slope="0.00"/>
        <vehicle id="0.11" x="275.97" y="1698.40" angle="90.00" type="C_ER" speed="10.30" pos="75.97" lane="-2243_0" slope="0.00"/>
        <vehicle id="0.12" x="251.09" y="1698.40" angle="90.00" type="C_ER" speed="7.98" pos="51.09" lane="-2243_0" slope="0.00"/>
        <vehicle id="0.13" x="228.89" y="1698.40" angle="90.00" type="C_ER" speed="7.03" pos="28.89" lane="-2243_0" slope="0.00"/>
        <vehicle id="0.14" x="213.80" y="1698.40" angle="90.00" type="C_ER" speed="2.16" pos="13.80" lane="-2243_0" slope="0.00"/>
        <vehicle id="0.2" x="551.08" y="1823.75" angle="63.44" type="C_ER" speed="17.34" pos="50.33" lane="-1988_0" slope="0.00"/>
        <vehicle id="0.6" x="385.79" y="1698.40" angle="90.00" type="C_ER" speed="15.07" pos="78.59" lane="-2173_0" slope="0.00"/>
        <vehicle id="0.7" x="596.41" y="1698.40" angle="90.00" type="C_ER" speed="19.35" pos="84.68" lane="-1946_0" slope="0.00"/>
        <vehicle id="0.8" x="352.84" y="1698.40" angle="90.00" type="C_ER" speed="13.40" pos="45.64" lane="-2173_0" slope="0.00"/>
        <vehicle id="0.9" x="324.38" y="1698.40" angle="90.00" type="C_ER" speed="13.00" pos="17.18" lane="-2173_0" slope="0.00"/>
    </timestep>
    <timestep time="30.00">
        <vehicle id="0.0" x="600.15" y="1600.89" angle="121.12" type="C_ER" speed="11.56" pos="7.25" lane=":1746_5_0" slope="0.00"/>
        <vehicle id="0.10" x="310.61" y="1698.40" angle="90.00" type="C_ER" speed="12.81" pos="3.41" lane="-2173_0" slope="0.00"/>
        <vehicle id="0.11" x="285.85" y="1698.40" angle="90.00" type="C_ER" speed="9.89" pos="85.85" lane="-2243_0" slope="0.00"/>
        <vehicle id="0.12" x="260.99" y="1698.40" angle="90.00" type="C_ER" speed="9.91" pos="60.99" lane="-2243_0" slope="0.00"/>
        <vehicle id="0.13" x="236.57" y="1698.40" angle="90.00" type="C_ER" speed="7.69" pos="36.57" lane="-2243_0" slope="0.00"/>