<?xml version="1.0" encoding="UTF-8"?>

<!-- generated on 2022-05-14 01:18:34 by Eclipse SUMO sumo Version 1.12.0
<configuration xmlns:xsi="http://www.w3.org/2001/XMLSchema-instance" xsi:noNamespaceSchemaLocation="http://sumo.dlr.de/xsd/sumoConfiguration.xsd">

    <input>
        <net-file value="config/simulation/../data/network.net.xml"/>
        <route-files value="config/simulation/../data/routes.xml"/>
        <additional-files value="config/simulation/edgeData.add.xml"/>
    </input>

    <output>
        <netstate-dump value="config/simulation/../../output/data/netstate_dump.xml"/>
        <fcd-output value="config/simulation/../../output/data/fcd.xml"/>
        <full-output value="config/simulation/../../output/data/full_output.xml"/>
        <summary-output value="config/simulation/../../output/data/summary.xml"/>
        <collision-output value="config/simulation/../../output/data/collisions.xml"/>
        <statistic-output value="config/simulation/../../output/data/statistics.xml"/>
    </output>

    <time>
        <end value="200"/>
    </time>

    <processing>
        <ignore-route-errors value="true"/>
        <time-to-teleport value="-1"/>
    </processing>

    <report>
        <verbose value="true"/>
        <duration-log.statistics value="true"/>
        <no-step-log value="true"/>
    </report>

    <ssm_device>
        <device.ssm.file value="../../output/data/ssm_reports.xml"/>
    </ssm_device>

    <gui_only>
        <gui-settings-file value="config/simulation/edge_visualization.xml"/>
        <start value="true"/>
        <delay value="200"/>
    </gui_only>

</configuration>
-->

<netstate xmlns:xsi="http://www.w3.org/2001/XMLSchema-instance" xsi:noNamespaceSchemaLocation="http://sumo.dlr.de/xsd/netstate_file.xsd">
    <timestep time="0.00">
        <edge id="-2243">
            <lane id="-2243_0">
                <vehicle id="0.0" pos="82.69" speed="20.84"/>
            </lane>
        </edge>
    </timestep>
    <timestep time="1.00">
        <edge id=":2172_5">
            <lane id=":2172_5_0">
                <vehicle id="0.0" pos="9.99" speed="20.10"/>
            </lane>
        </edge>
        <edge id="-2243">
            <lane id="-2243_0">
                <vehicle id="0.1" pos="66.12" speed="13.14"/>
            </lane>
        </edge>
    </timestep>
    <timestep time="2.00">
        <edge id="-2173">
            <lane id="-2173_0">
                <vehicle id="0.0" pos="14.73" speed="19.14"/>
            </lane>
        </edge>
        <edge id="-2243">
            <lane id="-2243_0">
                <vehicle id="0.2" pos="4.22" speed="20.84"/>
                <vehicle id="0.1" pos="79.52" speed="13.40"/>
            </lane>
        </edge>
    </timestep>
    <timestep time="3.00">
        <edge id="-2173">
            <lane id="-2173_0">
                <vehicle id="0.0" pos="33.78" speed="19.05"/>
            </lane>
        </edge>
        <edge id="-2243">
            <lane id="-2243_0">
                <vehicle id="0.2" pos="24.56" speed="20.34"/>
                <vehicle id="0.1" pos="91.92" speed="12.40"/>
            </lane>
        </edge>
    </timestep>
    <timestep time="4.00">
        <edge id=":2172_4">
            <lane id=":2172_4_0">
                <vehicle id="0.1" pos="8.52" speed="9.40"/>
            </lane>
        </edge>
        <edge id="-2173">
            <lane id="-2173_0">
                <vehicle id="0.0" pos="52.75" speed="18.98"/>
            </lane>
        </edge>
        <edge id="-2243">
            <lane id="-2243_0">
                <vehicle id="0.2" pos="44.39" speed="19.83"/>
            </lane>
        </edge>
    </timestep>
    <timestep time="5.00">
        <edge id="-2173">
            <lane id="-2173_0">
                <vehicle id="0.0" pos="71.89" speed="19.14"/>
            </lane>
        </edge>
        <edge id="-2243">
            <lane id="-2243_0">
                <vehicle id="0.3" pos="4.05" speed="20.84"/>
                <vehicle id="0.2" pos="61.22" speed="16.83"/>
            </lane>
        </edge>
        <edge id="2251">
            <lane id="2251_0">
                <vehicle id="0.1" pos="8.74" speed="9.25"/>
            </lane>
        </edge>
    </timestep>
    <timestep time="6.00">
        <edge id=":1979_6">
            <lane id=":1979_6_0">
                <vehicle id="0.0" pos="1.58" speed="20.48"/>
            </lane>
        </edge>
        <edge id="-2243">
            <lane id="-2243_0">
                <vehicle id="0.3" pos="23.74" speed="19.70"/>
                <vehicle id="0.2" pos="79.45" speed="18.23"/>
            </lane>
        </edge>
        <edge id="2251">
            <lane id="2251_0">
                <vehicle id="0.1" pos="19.13" speed="10.40"/>
            </lane>
        </edge>
    </timestep>
    <timestep time="7.00">
        <edge id=":2172_5">
            <lane id=":2172_5_0">
                <vehicle id="0.2" pos="6.48" speed="19.83"/>
            </lane>
        </edge>
        <edge id="-2243">
            <lane id="-2243_0">
                <vehicle id="0.3" pos="43.37" speed="19.62"/>
            </lane>
        </edge>
        <edge id="2169">
            <lane id="2169_0">
                <vehicle id="0.0" pos="7.72" speed="20.29"/>
            </lane>
        </edge>
        <edge id="2251">
            <lane id="2251_0">
                <vehicle id="0.1" pos="30.39" speed="11.26"/>
            </lane>
        </edge>
    </timestep>
    <timestep time="8.00">
        <edge id="-2173">
            <lane id="-2173_0">
                <vehicle id="0.2" pos="12.83" speed="20.75"/>
            </lane>
        </edge>
        <edge id="-2243">
            <lane id="-2243_0">
                <vehicle id="0.3" pos="61.45" speed="18.08"/>
            </lane>
        </edge>
        <edge id="2169">
            <lane id="2169_0">
                <vehicle id="0.0" pos="27.20" speed="19.48"/>
            </lane>
        </edge>
        <edge id="2251">
            <lane id="2251_0">
                <vehicle id="0.1" pos="42.09" speed="11.70"/>
            </lane>
        </edge>
    </timestep>
    <timestep time="9.00">
        <edge id="-2173">
            <lane id="-2173_0">
                <vehicle id="0.2" pos="33.41" speed="20.58"/>
            </lane>
        </edge>
        <edge id="-2243">
            <lane id="-2243_0">
                <vehicle id="0.4" pos="0.56" speed="20.84"/>
                <vehicle id="0.3" pos="77.21" speed="15.76"/>
            </lane>
        </edge>
        <edge id="2169">
            <lane id="2169_0">
                <vehicle id="0.0" pos="47.10" speed="19.90"/>
            </lane>
        </edge>
        <edge id="2251">
            <lane id="2251_0">
                <vehicle id="0.1" pos="55.53" speed="13.44"/>
            </lane>
        </edge>
    </timestep>
    <timestep time="10.00">
        <edge id="-2173">
            <lane id="-2173_0">
                <vehicle id="0.2" pos="52.91" speed="19.50"/>
            </lane>
        </edge>
        <edge id="-2243">
            <lane id="-2243_0">
                <vehicle id="0.4" pos="20.19" speed="19.63"/>
                <vehicle id="0.3" pos="89.98" speed="12.76"/>
            </lane>
        </edge>
        <edge id="2169">
            <lane id="2169_0">
                <vehicle id="0.0" pos="66.18" speed="19.08"/>
            </lane>
        </edge>
        <edge id="2251">
            <lane id="2251_0">
                <vehicle id="0.1" pos="69.29" speed="13.75"/>
            </lane>
        </edge>
    </timestep>
    <timestep time="11.00">
        <edge id=":2172_4">
            <lane id=":2172_4_0">
                <vehicle id="0.3" pos="6.94" speed="9.76"/>
            </lane>
        </edge>
        <edge id="-2173">
            <lane id="-2173_0">
                <vehicle id="0.2" pos="72.13" speed="19.23"/>
            </lane>
        </edge>
        <edge id="-2243">
            <lane id="-2243_0">
                <vehicle id="0.4" pos="39.35" speed="19.16"/>
            </lane>
        </edge>
        <edge id="2169">
            <lane id="2169_0">
                <vehicle id="0.0" pos="83.55" speed="17.36"/>
            </lane>
        </edge>
        <edge id="2251">
            <lane id="2251_0">
                <vehicle id="0.1" pos="83.82" speed="14.53"/>
            </lane>
        </edge>
    </timestep>
    <timestep time="12.00">
        <edge id=":1979_4">
            <lane id=":1979_4_0">
                <vehicle id="0.2" pos="4.70" speed="20.04"/>
            </lane>
        </edge>
        <edge id="-2243">
            <lane id="-2243_0">
                <vehicle id="0.4" pos="55.66" speed="16.31"/>
            </lane>
        </edge>
        <edge id="2169">
            <lane id="2169_0">
                <vehicle id="0.0" pos="97.91" speed="14.36"/>
            </lane>
        </edge>
        <edge id="2251">
            <lane id="2251_0">
                <vehicle id="0.3" pos="7.49" speed="9.58"/>
            </lane>
        </edge>
    </timestep>
    <timestep time="13.00">
        <edge id="-1980">
            <lane id="-1980_0">
                <vehicle id="0.2" pos="7.12" speed="19.47"/>
            </lane>
        </edge>
        <edge id="-2243">
            <lane id="-2243_0">
                <vehicle id="0.6" pos="5.59" speed="16.32"/>
                <vehicle id="0.5" pos="24.55" speed="17.81"/>
                <vehicle id="0.4" pos="69.81" speed="14.16"/>
                <vehicle id="0.7" pos="81.25" speed="20.84"/>
            </lane>
        </edge>
        <edge id="2169">
            <lane id="2169_0">
                <vehicle id="0.0" pos="109.27" speed="11.36"/>
            </lane>
        </edge>
        <edge id="2251">
            <lane id="2251_0">
                <vehicle id="0.3" pos="18.09" speed="10.60"/>
            </lane>
        </edge>
    </timestep>
    <timestep time="14.00">
        <edge id=":2172_5">
            <lane id=":2172_5_0">
                <vehicle id="0.7" pos="8.49" speed="20.04"/>
            </lane>
        </edge>
        <edge id="-1980">
            <lane id="-1980_0">
                <vehicle id="0.2" pos="27.84" speed="20.72"/>
            </lane>
        </edge>
        <edge id="-2243">
            <lane id="-2243_0">
                <vehicle id="0.6" pos="20.57" speed="14.98"/>
                <vehicle id="0.5" pos="41.87" speed="17.32"/>
                <vehicle id="0.4" pos="82.63" speed="12.81"/>
            </lane>
        </edge>
        <edge id="2169">
            <lane id="2169_0">
                <vehicle id="0.0" pos="117.64" speed="8.36"/>
            </lane>
        </edge>
        <edge id="2251">
            <lane id="2251_0">
                <vehicle id="0.3" pos="30.03" speed="11.94"/>
            </lane>
        </edge>
    </timestep>
    <timestep time="15.00">
        <edge id=":1985_4">
            <lane id=":1985_4_0">
                <vehicle id="0.0" pos="6.46" speed="6.79"/>
            </lane>
        </edge>
        <edge id="-1980">
            <lane id="-1980_0">
                <vehicle id="0.2" pos="47.16" speed="19.32"/>
            </lane>
        </edge>
        <edge id="-2173">
            <lane id="-2173_0">
                <vehicle id="0.7" pos="14.92" speed="20.82"/>
            </lane>
        </edge>
        <edge id="-2243">
            <lane id="-2243_0">
                <vehicle id="0.8" pos="4.29" speed="16.37"/>
                <vehicle id="0.6" pos="35.90" speed="15.33"/>
                <vehicle id="0.5" pos="56.50" speed="14.63"/>
                <vehicle id="0.4" pos="92.44" speed="9.81"/>
            </lane>
        </edge>
        <edge id="2251">
            <lane id="2251_0">
                <vehicle id="0.3" pos="42.41" speed="12.37"/>
            </lane>
        </edge>
    </timestep>
    <timestep time="16.00">
        <edge id="-1980">
            <lane id="-1980_0">
                <vehicle id="0.2" pos="63.63" speed="16.47"/>
            </lane>
        </edge>
        <edge id="-1986">
            <lane id="-1986_0">
                <vehicle id="0.0" pos="4.85" speed="8.13"/>
            </lane>
        </edge>
        <edge id="-2173">
            <lane id="-2173_0">
                <vehicle id="0.7" pos="34.61" speed="19.70"/>
            </lane>
        </edge>
        <edge id="-2243">
            <lane id="-2243_0">
                <vehicle id="0.8" pos="20.42" speed="16.13"/>
                <vehicle id="0.6" pos="48.22" speed="12.33"/>
                <vehicle id="0.5" pos="69.83" speed="13.33"/>
            </lane>
        </edge>
        <edge id="2251">
            <lane id="2251_0">
                <vehicle id="0.4" pos="0.03" speed="9.42"/>
                <vehicle id="0.3" pos="55.13" speed="12.73"/>
            </lane>
        </edge>
    </timestep>
    <timestep time="17.00">
        <edge id="-1980">
            <lane id="-1980_0">
                <vehicle id="0.2" pos="78.52" speed="14.89"/>
            </lane>
        </edge>
        <edge id="-1986">
            <lane id="-1986_0">
                <vehicle id="0.0" pos="14.42" speed="9.57"/>
            </lane>
        </edge>
        <edge id="-2173">
            <lane id="-2173_0">
                <vehicle id="0.7" pos="53.98" speed="19.37"/>
            </lane>
        </edge>
        <edge id="-2243">
            <lane id="-2243_0">
                <vehicle id="0.8" pos="33.55" speed="13.13"/>
                <vehicle id="0.6" pos="61.08" speed="12.86"/>
                <vehicle id="0.5" pos="81.67" speed="11.85"/>
            </lane>
        </edge>
        <edge id="2251">
            <lane id="2251_0">
                <vehicle id="0.4" pos="10.61" speed="10.59"/>
                <vehicle id="0.3" pos="69.41" speed="14.27"/>
            </lane>
        </edge>
    </timestep>
    <timestep time="18.00">
        <edge id=":1945_13">
            <lane id=":1945_13_0">
                <vehicle id="0.2" pos="5.28" speed="11.89"/>
            </lane>
        </edge>
        <edge id="-1986">
            <lane id="-1986_0">
                <vehicle id="0.0" pos="25.86" speed="11.44"/>
            </lane>
        </edge>
        <edge id="-2173">
            <lane id="-2173_0">
                <vehicle id="0.7" pos="73.24" speed="19.26"/>
            </lane>
        </edge>
        <edge id="-2243">
            <lane id="-2243_0">
                <vehicle id="0.8" pos="46.40" speed="12.85"/>
                <vehicle id="0.6" pos="71.03" speed="9.94"/>
                <vehicle id="0.5" pos="91.41" speed="9.74"/>
            </lane>
        </edge>
        <edge id="2251">
            <lane id="2251_0">
                <vehicle id="0.4" pos="21.34" speed="10.73"/>
                <vehicle id="0.3" pos="85.27" speed="15.86"/>
            </lane>
        </edge>
    </timestep>
    <timestep time="19.00">
        <edge id=":1979_4">
            <lane id=":1979_4_0">
                <vehicle id="0.7" pos="5.70" speed="19.93"/>
            </lane>
        </edge>
        <edge id=":2172_4">
            <lane id=":2172_4_0">
                <vehicle id="0.5" pos="6.61" speed="7.99"/>
            </lane>
        </edge>
        <edge id="-1986">
            <lane id="-1986_0">
                <vehicle id="0.0" pos="38.93" speed="13.06"/>
            </lane>
        </edge>
        <edge id="-2243">
            <lane id="-2243_0">
                <vehicle id="0.8" pos="57.01" speed="10.61"/>
                <vehicle id="0.6" pos="80.39" speed="9.36"/>
            </lane>
        </edge>
        <edge id="1986">
            <lane id="1986_0">
                <vehicle id="0.2" pos="5.73" speed="10.58"/>
            </lane>
        </edge>
        <edge id="2251">
            <lane id="2251_0">
                <vehicle id="0.4" pos="33.05" speed="11.71"/>
            </lane>
        </edge>
    </timestep>
    <timestep time="20.00">
        <edge id="-1980">
            <lane id="-1980_0">
                <vehicle id="0.7" pos="9.14" speed="20.49"/>
            </lane>
        </edge>
        <edge id="-1986">
            <lane id="-1986_0">
                <vehicle id="0.0" pos="53.54" speed="14.61"/>
            </lane>
        </edge>
        <edge id="-2243">
            <lane id="-2243_0">
                <vehicle id="0.8" pos="67.18" speed="10.17"/>
                <vehicle id="0.6" pos="88.68" speed="8.29"/>
            </lane>
        </edge>
        <edge id="1986">
            <lane id="1986_0">
                <vehicle id="0.2" pos="16.53" speed="10.80"/>
            </lane>
        </edge>
        <edge id="2251">
            <lane id="2251_0">
                <vehicle id="0.5" pos="5.49" speed="7.92"/>
                <vehicle id="0.4" pos="45.29" speed="12.23"/>
            </lane>
        </edge>
    </timestep>
    <timestep time="21.00">
        <edge id=":2172_5">
            <lane id=":2172_5_0">
                <vehicle id="0.6" pos="2.61" speed="6.73"/>
            </lane>
        </edge>
        <edge id="-1980">
            <lane id="-1980_0">
                <vehicle id="0.7" pos="28.93" speed="19.78"/>
            </lane>
        </edge>
        <edge id="-1986">
            <lane id="-1986_0">
                <vehicle id="0.0" pos="69.75" speed="16.21"/>
            </lane>
        </edge>
        <edge id="-2243">
            <lane id="-2243_0">
                <vehicle id="0.9" pos="36.80" speed="13.43"/>
                <vehicle id="0.8" pos="75.78" speed="8.60"/>
            </lane>
        </edge>
        <edge id="1986">
            <lane id="1986_0">
                <vehicle id="0.2" pos="27.99" speed="11.46"/>
            </lane>
        </edge>
        <edge id="2251">
            <lane id="2251_0">
                <vehicle id="0.5" pos="15.13" speed="9.64"/>
                <vehicle id="0.4" pos="57.91" speed="12.62"/>
            </lane>
        </edge>
    </timestep>
    <timestep time="22.00">
        <edge id=":1945_1">
            <lane id=":1945_1_0">
                <vehicle id="0.0" pos="5.75" speed="17.07"/>
            </lane>
        </edge>
        <edge id=":2172_5">
            <lane id=":2172_5_0">
                <vehicle id="0.6" pos="10.06" speed="7.45"/>
            </lane>
        </edge>
        <edge id="-1980">
            <lane id="-1980_0">
                <vehicle id="0.7" pos="48.69" speed="19.76"/>
            </lane>
        </edge>
        <edge id="-2243">
            <lane id="-2243_0">
                <vehicle id="0.11" pos="3.01" speed="12.12"/>
                <vehicle id="0.10" pos="21.97" speed="12.93"/>
                <vehicle id="0.9" pos="48.77" speed="11.96"/>
                <vehicle id="0.8" pos="83.02" speed="7.24"/>
            </lane>
        </edge>
        <edge id="1986">
            <lane id="1986_0">
                <vehicle id="0.2" pos="40.17" speed="12.18"/>
            </lane>
        </edge>
        <edge id="2251">
            <lane id="2251_0">
                <vehicle id="0.5" pos="25.65" speed="10.51"/>
                <vehicle id="0.4" pos="71.35" speed="13.44"/>
            </lane>
        </edge>
    </timestep>
    <timestep time="23.00">
        <edge id="-1951">
            <lane id="-1951_0">
                <vehicle id="0.0" pos="5.32" speed="18.66"/>
            </lane>
        </edge>
        <edge id="-1980">
            <lane id="-1980_0">
                <vehicle id="0.7" pos="66.81" speed="18.12"/>
            </lane>
        </edge>
        <edge id="-2173">
            <lane id="-2173_0">
                <vehicle id="0.6" pos="4.22" speed="8.56"/>
            </lane>
        </edge>
        <edge id="-2243">
            <lane id="-2243_0">
                <vehicle id="0.11" pos="15.00" speed="11.99"/>
                <vehicle id="0.10" pos="34.06" speed="12.09"/>
                <vehicle id="0.9" pos="59.54" speed="10.77"/>
                <vehicle id="0.8" pos="90.26" speed="7.25"/>
            </lane>
        </edge>
        <edge id="1986">
            <lane id="1986_0">
                <vehicle id="0.2" pos="53.30" speed="13.13"/>
            </lane>
        </edge>
        <edge id="2251">
            <lane id="2251_0">
                <vehicle id="0.5" pos="37.02" speed="11.38"/>
                <vehicle id="0.4" pos="86.66" speed="15.32"/>
            </lane>
        </edge>
    </timestep>
    <timestep time="24.00">
        <edge id=":1945_10">
            <lane id=":1945_10_0">
                <vehicle id="0.7" pos="5.52" speed="19.77"/>
            </lane>
        </edge>
        <edge id=":2172_5">
            <lane id=":2172_5_0">
                <vehicle id="0.8" pos="5.08" speed="7.61"/>
            </lane>
        </edge>
        <edge id="-1951">
            <lane id="-1951_0">
                <vehicle id="0.0" pos="25.39" speed="20.08"/>
            </lane>
        </edge>
        <edge id="-2173">
            <lane id="-2173_0">
                <vehicle id="0.6" pos="13.81" speed="9.59"/>
            </lane>
        </edge>
        <edge id="-2243">
            <lane id="-2243_0">
                <vehicle id="0.12" pos="14.77" speed="7.97"/>
                <vehicle id="0.11" pos="25.67" speed="10.68"/>
                <vehicle id="0.10" pos="45.93" speed="11.87"/>
                <vehicle id="0.9" pos="70.19" speed="10.65"/>
            </lane>
        </edge>
        <edge id="1986">
            <lane id="1986_0">
                <vehicle id="0.2" pos="66.71" speed="13.41"/>
            </lane>
        </edge>
        <edge id="2251">
            <lane id="2251_0">
                <vehicle id="0.5" pos="49.39" speed="12.36"/>
            </lane>
        </edge>
    </timestep>
    <timestep time="25.00">
        <edge id=":2172_5">
            <lane id=":2172_5_0">
                <vehicle id="0.8" pos="13.83" speed="8.76"/>
            </lane>
        </edge>
        <edge id="-1946">
            <lane id="-1946_0">
                <vehicle id="0.7" pos="6.54" speed="19.95"/>
            </lane>
        </edge>
        <edge id="-1951">
            <lane id="-1951_0">
                <vehicle id="0.0" pos="45.37" speed="19.98"/>
            </lane>
        </edge>
        <edge id="-2173">
            <lane id="-2173_0">
                <vehicle id="0.6" pos="24.84" speed="11.03"/>
            </lane>
        </edge>
        <edge id="-2243">
            <lane id="-2243_0">
                <vehicle id="0.13" pos="2.77" speed="6.83"/>
                <vehicle id="0.12" pos="20.95" speed="6.18"/>
                <vehicle id="0.11" pos="36.90" speed="11.22"/>
                <vehicle id="0.10" pos="56.42" speed="10.49"/>
                <vehicle id="0.9" pos="79.75" speed="9.56"/>
            </lane>
        </edge>
        <edge id="1986">
            <lane id="1986_0">
                <vehicle id="0.2" pos="80.79" speed="14.08"/>
            </lane>
        </edge>
        <edge id="2251">
            <lane id="2251_0">
                <vehicle id="0.5" pos="62.01" speed="12.62"/>
            </lane>
        </edge>
    </timestep>
    <timestep time="26.00">
        <edge id="-1946">
            <lane id="-1946_0">
                <vehicle id="0.7" pos="26.32" speed="19.79"/>
            </lane>
        </edge>
        <edge id="-1951">
            <lane id="-1951_0">
                <vehicle id="0.0" pos="66.19" speed="20.82"/>
            </lane>
        </edge>
        <edge id="-1988">
            <lane id="-1988_0">
                <vehicle id="0.2" pos="0.09" speed="14.68"/>
            </lane>
        </edge>
        <edge id="-2173">
            <lane id="-2173_0">
                <vehicle id="0.8" pos="9.11" speed="9.68"/>
                <vehicle id="0.6" pos="36.09" speed="11.25"/>
            </lane>
        </edge>
        <edge id="-2243">
            <lane id="-2243_0">
                <vehicle id="0.13" pos="8.48" speed="5.71"/>
                <vehicle id="0.12" pos="28.58" speed="7.63"/>
                <vehicle id="0.11" pos="46.06" speed="9.16"/>
                <vehicle id="0.10" pos="66.06" speed="9.64"/>
                <vehicle id="0.9" pos="89.59" speed="9.84"/>
            </lane>
        </edge>
        <edge id="2251">
            <lane id="2251_0">
                <vehicle id="0.5" pos="75.35" speed="13.34"/>
            </lane>
        </edge>
    </timestep>
    <timestep time="27.00">
        <edge id=":2172_5">
            <lane id=":2172_5_0">
                <vehicle id="0.9" pos="6.94" speed="10.14"/>
            </lane>
        </edge>
        <edge id="-1946">
            <lane id="-1946_0">
                <vehicle id="0.7" pos="45.74" speed="19.41"/>
            </lane>
        </edge>
        <edge id="-1951">
            <lane id="-1951_0">
                <vehicle id="0.0" pos="86.41" speed="20.22"/>
            </lane>
        </edge>
        <edge id="-1988">
            <lane id="-1988_0">
                <vehicle id="0.2" pos="16.46" speed="16.37"/>
            </lane>
        </edge>
        <edge id="-2173">
            <lane id="-2173_0">
                <vehicle id="0.8" pos="20.44" speed="11.33"/>
                <vehicle id="0.6" pos="49.27" speed="13.18"/>
            </lane>
        </edge>
        <edge id="-2243">
            <lane id="-2243_0">
                <vehicle id="0.13" pos="15.02" speed="6.54"/>
                <vehicle id="0.12" pos="35.54" speed="6.96"/>
                <vehicle id="0.11" pos="55.22" speed="9.16"/>
                <vehicle id="0.10" pos="76.42" speed="10.37"/>
            </lane>
        </edge>
        <edge id="2251">
            <lane id="2251_0">
                <vehicle id="0.5" pos="88.93" speed="13.59"/>
            </lane>
        </edge>
    </timestep>
    <timestep time="28.00">
        <edge id="-1946">
            <lane id="-1946_0">
                <vehicle id="0.7" pos="65.33" speed="19.59"/>
            </lane>
        </edge>
        <edge id="-1951">
            <lane id="-1951_0">
                <vehicle id="0.0" pos="103.62" speed="17.22"/>
            </lane>
        </edge>
        <edge id="-1988">
            <lane id="-1988_0">
                <vehicle id="0.2" pos="32.99" speed="16.53"/>
            </lane>
        </edge>
        <edge id="-2173">
            <lane id="-2173_0">
                <vehicle id="0.9" pos="4.18" speed="11.64"/>
                <vehicle id="0.8" pos="32.24" speed="11.80"/>
                <vehicle id="0.6" pos="63.52" speed="14.25"/>
            </lane>
        </edge>
        <edge id="-2243">
            <lane id="-2243_0">
                <vehicle id="0.14" pos="11.64" speed="3.93"/>
                <vehicle id="0.13" pos="21.86" speed="6.84"/>
                <vehicle id="0.12" pos="43.10" speed="7.56"/>
                <vehicle id="0.11" pos="65.67" speed="10.45"/>
                <vehicle id="0.10" pos="86.88" speed="10.45"/>
            </lane>
        </edge>
    </timestep>
    <timestep time="29.00">
        <edge id=":2172_5">
            <lane id=":2172_5_0">
                <vehicle id="0.10" pos="5.00" speed="10.92"/>
            </lane>
        </edge>
        <edge id="-1946">
            <lane id="-1946_0">
                <vehicle id="0.7" pos="84.68" speed="19.35"/>
            </lane>
        </edge>
        <edge id="-1951">
            <lane id="-1951_0">
                <vehicle id="0.0" pos="118.18" speed="14.56"/>
            </lane>
        </edge>
        <edge id="-1988">
            <lane id="-1988_0">
                <vehicle id="0.2" pos="50.33" speed="17.34"/>
            </lane>
        </edge>
        <edge id="-2173">
            <lane id="-2173_0">
                <vehicle id="0.9" pos="17.18" speed="13.00"/>
                <vehicle id="0.8" pos="45.64" speed="13.40"/>
                <vehicle id="0.6" pos="78.59" speed="15.07"/>
            </lane>
        </edge>
        <edge id="-2243">
            <lane id="-2243_0">
                <vehicle id="0.14" pos="13.80" speed="2.16"/>
                <vehicle id="0.13" pos="28.89" speed="7.03"/>
                <vehicle id="0.12" pos="51.09" speed="7.98"/>
                <vehicle id="0.11" pos="75.97" speed="10.30"/>
            </lane>
        </edge>
    </timestep>
    <timestep time="30.00">
        <edge id=":1746_5">
            <lane id=":1746_5_0">
                <vehicle id="0.0" pos="7.25" speed="11.56"/>
            </lane>
        </edge>
        <edge id=":1979_4">
            <lane id=":1979_4_0">
                <vehicle id="0.6" pos="7.43" speed="16.31"/>
            </lane>
        </edge>
        <edge id="-1946">
            <lane id="-1946_0">
                <vehicle id="0.7" pos="105.07" speed="20.39"/>
            </lane>
        </edge>
        <edge id="-1988">
            <lane id="-1988_0">
                <vehicle id="0.2" pos="68.94" speed="18.60"/>
            </lane>
        </edge>
        <edge id="-2173">
            <lane id="-2173_0">
                <vehicle id="0.10" pos="3.41" speed="12.81"/>
                <vehicle id="0.9" pos="31.52" speed="14.34"/>
                <vehicle id="0.8" pos="60.95" speed="15.31"/>
            </lane>
        </edge>
        <edge id="-2243">
            <lane id="-2243_0">
                <vehicle id="0.14" pos="16.86" speed="3.06"/>
                <vehicle id="0.13" pos="36.57" speed="7.69"/>
                <vehicle id="0.12" pos="60.99" speed="9.91"/>
                <vehicle id="0.11" pos="85.85" speed="9.89"/>
            </lane>
        </edge>
    </timestep>
    <timestep time="31.00">
        <edge id=":2172_4">
            <lane id=":2172_4_0">
                <vehicle id="0.11" pos="1.43" speed="8.38"/>
            </lane>
        </edge>
        <edge id="-1939">
            <lane id="-1939_0">
                <vehicle id="0.0" pos="3.57" speed="10.51"/>
            </lane>
        </edge>
        <edge id="-1946">